 Gaussian 03, Revision D.02,
 Gaussian 03:  AM64L-G03RevD.02  1-Mar-2006

 ---------------------
 #MP2/aug-cc-pVDZ scan
 ---------------------

 ---------------------------------------
 C1H...OHH 90.0 degrees, mp2/aug-cc-pVDZ
 ---------------------------------------
 Symbolic Z-matrix:
 Charge =  0 Multiplicity = 1

 SCF Done:  E(RHF) =  -765.678849556     A.U. after   15 cycles
 E2 =    -0.1184693969D+01 EUMP2 =    -0.76686354352587D+03

 The electronic state is 1-A'.
 Alpha  occ. eigenvalues -- -104.81937 -20.57796 -11.29599 -11.25243 -11.25234
 Alpha  occ. eigenvalues --  -11.24962 -11.24961 -11.24715 -10.54482  -8.01248
 Alpha  occ. eigenvalues --   -8.00887  -8.00873  -1.36262  -1.17156  -1.10150
 Alpha  occ. eigenvalues --   -1.01876  -0.98285  -0.83297  -0.80727  -0.72373
 Alpha  occ. eigenvalues --   -0.69706  -0.64406  -0.63133  -0.61062  -0.59086
 Alpha  occ. eigenvalues --   -0.55396  -0.52710  -0.51365  -0.50505  -0.48640
 Alpha  occ. eigenvalues --   -0.44981  -0.43629  -0.33933  -0.32134
 Alpha virt. eigenvalues --    0.03211   0.03857   0.04339   0.05357   0.05524
 Alpha virt. eigenvalues --    0.07143   0.07481   0.10209   0.10305   0.11827
 Alpha virt. eigenvalues --    0.12534   0.13288   0.14323   0.14492   0.14974

 Mulliken atomic charges:
              1
     1  C    0.345565
     2  H   -0.372479
     3  C    0.647026
     4  H   -0.420569
     5  C    0.180200
     6  H   -0.418433
     7  C    0.647022
     8  H   -0.420568
     9  C    0.345565
    10  H   -0.372479
    11  C    0.174708
    12  Cl  -0.365721
    13  O   -0.290584
    14  H    0.160374
    15  H    0.160374
 Sum of Mulliken charges=   0.00000

 Dipole moment (field-independent basis, Debye):
    X=     0.0000    Y=     1.1452    Z=     0.0000  Tot=     1.1452
 Quadrupole moment (field-independent basis, Debye-Ang):
   XX=   -47.2414   YY=   -32.3598   ZZ=   -60.7550
   XY=     0.0000   XZ=     0.0000   YZ=     0.0000

 SCF Done:  E(RHF) =  -765.682280020     A.U. after   15 cycles
 E2 =    -0.1183871235D+01 EUMP2 =    -0.76686615125532D+03
 SCF Done:  E(RHF) =  -765.684636412     A.U. after   12 cycles
 E2 =    -0.1183173542D+01 EUMP2 =    -0.76686780995414D+03
 SCF Done:  E(RHF) =  -765.686232468     A.U. after   11 cycles
 E2 =    -0.1182581824D+01 EUMP2 =    -0.76686881429154D+03
 SCF Done:  E(RHF) =  -765.687297245     A.U. after   11 cycles
 E2 =    -0.1182080655D+01 EUMP2 =    -0.76686937790030D+03
 SCF Done:  E(RHF) =  -765.687996046     A.U. after   11 cycles
 E2 =    -0.1181657015D+01 EUMP2 =    -0.76686965306152D+03
 SCF Done:  E(RHF) =  -765.688446524     A.U. after   11 cycles
 E2 =    -0.1181299544D+01 EUMP2 =    -0.76686974606783D+03
 SCF Done:  E(RHF) =  -765.688731113     A.U. after   11 cycles
 E2 =    -0.1180998256D+01 EUMP2 =    -0.76686972936914D+03
 SCF Done:  E(RHF) =  -765.688906562     A.U. after   11 cycles
 E2 =    -0.1180744403D+01 EUMP2 =    -0.76686965096585D+03
 SCF Done:  E(RHF) =  -765.689011176     A.U. after   11 cycles
 E2 =    -0.1180530301D+01 EUMP2 =    -0.76686954147643D+03
 E2 =    -0.1180349291D+01 EUMP2 =    -0.76686941967976D+03
 E2 =    -0.1180195649D+01 EUMP2 =    -0.76686929649922D+03
 E2 =    -0.1180064526D+01 EUMP2 =    -0.76686917797316D+03
 E2 =    -0.1179951918D+01 EUMP2 =    -0.76686906722717D+03
 E2 =    -0.1179854568D+01 EUMP2 =    -0.76686896571138D+03
 E2 =    -0.1179769892D+01 EUMP2 =    -0.76686887395799D+03
 SCF Done:  E(RHF) =  -765.689096087     A.U. after   11 cycles
 E2 =    -0.1179695875D+01 EUMP2 =    -0.76686879196200D+03
 SCF Done:  E(RHF) =  -765.689088423     A.U. after   11 cycles
 E2 =    -0.1179630937D+01 EUMP2 =    -0.76686871936083D+03
 SCF Done:  E(RHF) =  -765.689081729     A.U. after   11 cycles
 E2 =    -0.1179573832D+01 EUMP2 =    -0.76686865556059D+03
 SCF Done:  E(RHF) =  -765.689076270     A.U. after   12 cycles
 E2 =    -0.1179523537D+01 EUMP2 =    -0.76686859980689D+03
 SCF Done:  E(RHF) =  -765.689072086     A.U. after   11 cycles
 E2 =    -0.1179479192D+01 EUMP2 =    -0.76686855127837D+03
 SCF Done:  E(RHF) =  -765.689069086     A.U. after   11 cycles
 E2 =    -0.1179440046D+01 EUMP2 =    -0.76686850913160D+03
 SCF Done:  E(RHF) =  -765.689067146     A.U. after   11 cycles
 E2 =    -0.1179405426D+01 EUMP2 =    -0.76686847257246D+03
 SCF Done:  E(RHF) =  -765.689066152     A.U. after   11 cycles
 E2 =    -0.1179374727D+01 EUMP2 =    -0.76686844087841D+03
 SCF Done:  E(RHF) =  -765.689066017     A.U. after   11 cycles
 E2 =    -0.1179347406D+01 EUMP2 =    -0.76686841342266D+03

                         Standard orientation:
 ---------------------------------------------------------------------
 Center     Atomic     Atomic              Coordinates (Angstroms)
 Number     Number      Type              X           Y           Z
 ---------------------------------------------------------------------
    1          6             0       -1.226543   -1.258887    0.000000
    2          1             0       -2.164857   -0.698848    0.000000
    3          6             0       -1.217204   -2.665937    0.000000
    4          1             0       -2.167243   -3.208332    0.000000
    5          6             0        0.000000   -3.372517    0.000000
    6          1             0        0.000000   -4.465950    0.000000
    7          6             0        1.217204   -2.665937    0.000000
    8          1             0        2.167243   -3.208333    0.000000
    9          6             0        1.226543   -1.258886    0.000000
   10          1             0        2.164857   -0.698847    0.000000
   11          6             0        0.000000   -0.573310    0.000000
   12         17             0        0.000000    1.180791    0.000000
   13          8             0        0.000000    6.180791    0.000000
   14          1             0       -0.756950    6.766674    0.000000
   15          1             0        0.756950    6.766674    0.000000
 ---------------------------------------------------------------------

 SCF Done:  E(RHF) =  -765.689066679     A.U. after   11 cycles
 E2 =    -0.1179322984D+01 EUMP2 =    -0.76686838966331D+03

 1\1\GINC-N080\Scan\RMP2-FC\Aug-CC-pVDZ\C6H7Cl1O1\FYLIN\13-Apr-2016\1\\
 #MP2/aug-cc-pVDZ scan\\C1H...OHH 90.0 degrees, mp2/aug-cc-pVDZ\\0,1\C,
 0,0.17303,-1.226543,0.\H,0,-0.387009,-2.164857,0.\C,0,1.58008,-1.21720
 4,0.\H,0,2.122475,-2.167243,0.\C,0,2.28666,0.,0.\H,0,3.380093,0.,0.\C,
 0,1.58008,1.217204,0.\H,0,2.122476,2.167243,0.\C,0,0.173029,1.226543,0
 .\H,0,-0.38701,2.164857,0.\C,0,-0.512547,0.,0.\Cl,0,-2.266648,0.,0.\X,
 12,1.,11,90.,9,0.,0\O,12,roh,13,90.,11,180.,0\H,14,0.9572,12,127.74,13
 ,180.,0\H,14,0.9572,12,127.74,13,0.,0\\roh=2.5,s,25,0.1\\Version=AM64L

 Normal termination of Gaussian 03 at Wed Apr 13 20:30:14 2016.
