 Gaussian 03, Revision D.02,

 ----------------------------------------------------------------------
 #MP2/aug-cc-pVDZ opt=(tight,maxcycle=200) pop=(mk,dipole) density=curr
 ent
 ----------------------------------------------------------------------

 ---------------------------------
 CLET OPTIMIZED AT MP2/aug-cc-pVDZ
 ---------------------------------
 Symbolic Z-matrix:
 Charge =  0 Multiplicity = 1

 SCF Done:  E(RHF) =  -538.162051395     A.U. after   12 cycles
 E2 =    -0.4532544932D+00 EUMP2 =    -0.53861530588793D+03
 SCF Done:  E(RHF) =  -538.164495140     A.U. after   10 cycles
 E2 =    -0.4522193344D+00 EUMP2 =    -0.53861671447443D+03
 SCF Done:  E(RHF) =  -538.164737805     A.U. after   10 cycles
 E2 =    -0.4521376644D+00 EUMP2 =    -0.53861687546986D+03
 SCF Done:  E(RHF) =  -538.164697610     A.U. after    9 cycles
 E2 =    -0.4521910613D+00 EUMP2 =    -0.53861688867176D+03
 SCF Done:  E(RHF) =  -538.164696511     A.U. after    7 cycles
 E2 =    -0.4521928469D+00 EUMP2 =    -0.53861688935755D+03
 SCF Done:  E(RHF) =  -538.164695676     A.U. after    6 cycles
 E2 =    -0.4521937038D+00 EUMP2 =    -0.53861688937966D+03
 Optimization completed.
    -- Stationary point found.

                         Standard orientation:
 ---------------------------------------------------------------------
 Center     Atomic     Atomic              Coordinates (Angstroms)
 Number     Number      Type              X           Y           Z
 ---------------------------------------------------------------------
    1          6             0        0.000000    0.822370    0.000000
    2         17             0        0.825357   -0.789016    0.000000
    3          1             0        0.356564    1.347568    0.896000
    4          1             0        0.356564    1.347568   -0.896000
    5          6             0       -1.511627    0.654420    0.000000
    6          1             0       -1.990226    1.647724    0.000000
    7          1             0       -1.842105    0.104833   -0.893316
    8          1             0       -1.842105    0.104833    0.893316
 ---------------------------------------------------------------------

 Normal termination of Gaussian 03 at Mon Mar 28 14:05:40 2016.
 Gaussian 03:  AM64L-G03RevD.02  1-Mar-2006

 ----------------------------------------------------------------
 #MP2/aug-cc-pVDZ NOSYMM SCF=TIGHT GEOM=ALLCHECK FREQ IOP(7/33=1)
 ----------------------------------------------------------------

 CLET OPTIMIZED AT MP2/aug-cc-pVDZ
 ---------------------------------
 Redundant internal coordinates taken from checkpoint file:
 CLET_OPT_FREQ_MP2.chk
 Charge =  0 Multiplicity = 1

 SCF Done:  E(RHF) =  -538.164695676     A.U. after   12 cycles
 E2 =    -0.4521937041D+00 EUMP2 =    -0.53861688937992D+03

 Alpha  occ. eigenvalues -- -104.81761 -11.30556 -11.24584 -10.54378  -8.01137
 Alpha  occ. eigenvalues --   -8.00829  -8.00824  -1.13274  -0.99984  -0.84177
 Alpha  occ. eigenvalues --   -0.64740  -0.60818  -0.55882  -0.52752  -0.50399
 Alpha  occ. eigenvalues --   -0.43110  -0.43050
 Alpha virt. eigenvalues --    0.03441   0.04885   0.05050   0.06024   0.07749
 Alpha virt. eigenvalues --    0.09477   0.12203   0.13232   0.14591   0.15079
 Alpha virt. eigenvalues --    0.16360   0.17779   0.18035   0.19098   0.19119

 Mulliken atomic charges:
              1
     1  C   -0.243115
     2  Cl  -0.160508
     3  H    0.054779
     4  H    0.054779
     5  C    0.319706
     6  H   -0.018440
     7  H   -0.003600
     8  H   -0.003600
 Sum of Mulliken charges=   0.00000

 Dipole moment (field-independent basis, Debye):
    X=     2.4028    Y=     0.2078    Z=     0.0000  Tot=     2.4118
 Quadrupole moment (field-independent basis, Debye-Ang):
   XX=   -21.4442   YY=   -26.6026   ZZ=   -26.5391
   XY=     0.3549   XZ=     0.0000   YZ=     0.0000

  Exact polarizability:  49.123   3.269  39.432   0.000   0.000  35.766
 Approx polarizability:  41.054   0.275  33.828   0.000   0.000  33.692

                     1                      2                      3
                    A"                     A'                     A'
 Frequencies --   266.6626               335.8678               689.4556
 Red. masses --     1.0920                 3.1454                 4.4981
 Frc consts  --     0.0458                 0.2091                 1.2598
 IR Inten    --     0.0927                 2.3048                23.8376

                     4                      5                      6
                    A"                     A'                     A"
 Frequencies --   785.0981               994.5527              1078.7116
 Red. masses --     1.1017                 1.6685                 1.2656
 Frc consts  --     0.4001                 0.9724                 0.8677
 IR Inten    --     2.0529                17.8742                 0.0035

                     7                      8                      9
                    A'                     A"                     A'
 Frequencies --  1100.2620              1270.7239              1310.9265
 Red. masses --     2.3322                 1.1994                 1.2414
 Frc consts  --     1.6635                 1.1411                 1.2569
 IR Inten    --     0.4753                 0.2191                32.4917

                    10                     11                     12
                    A'                     A"                     A'
 Frequencies --  1396.3333              1474.8352              1481.1301
 Red. masses --     1.2727                 1.0361                 1.0927
 Frc consts  --     1.4620                 1.3278                 1.4123
 IR Inten    --     6.0254                 8.0294                 0.9094

                    13                     14                     15
                    A'                     A'                     A'
 Frequencies --  1489.2588              3069.5077              3119.4674
 Red. masses --     1.0518                 1.0366                 1.0587
 Frc consts  --     1.3744                 5.7543                 6.0700
 IR Inten    --     2.0263                14.8246                15.8296

                    16                     17                     18
                    A'                     A"                     A"
 Frequencies --  3162.6919              3173.6279              3195.9628
 Red. masses --     1.0993                 1.1046                 1.1093
 Frc consts  --     6.4788                 6.5550                 6.6761
 IR Inten    --    17.1329                 2.2676                14.3338

 - Thermochemistry -
 -------------------
 Temperature   298.150 Kelvin.  Pressure   1.00000 Atm.
 Atom  1 has atomic number  6 and mass  12.00000

 Molecular mass:    64.00798 amu.
 Principal axes and moments of inertia in atomic units:
                           1         2         3
     EIGENVALUES --    58.22033 332.02132 367.19605
           X            0.90087  -0.43408   0.00000
           Y            0.43408   0.90087   0.00000
           Z            0.00000   0.00000   1.00000
 This molecule is an asymmetric top.
 Rotational symmetry number  1.
 Rotational temperatures (Kelvin)      1.48769     0.26087     0.23588
 Rotational constants (GHZ):          30.99847     5.43562     4.91493
 Zero-point vibrational energy     175821.6 (Joules/Mol)
                                   42.02237 (Kcal/Mol)
 Warning -- explicit consideration of   2 degrees of freedom as
           vibrations may cause significant error
 Vibrational temperatures:    383.67   483.24   991.97  1129.58  1430.94
          (Kelvin)           1552.02  1583.03  1828.29  1886.13  2009.01
                             2121.96  2131.01  2142.71  4416.33  4488.21
                             4550.40  4566.14  4598.27

 Zero-point correction=                           0.066967 (Hartree/Particle)
 Thermal correction to Energy=                    0.070976
 Thermal correction to Enthalpy=                  0.071921
 Thermal correction to Gibbs Free Energy=         0.040755
 Sum of electronic and zero-point Energies=           -538.549922
 Sum of electronic and thermal Energies=              -538.545913
 Sum of electronic and thermal Enthalpies=            -538.544969
 Sum of electronic and thermal Free Energies=         -538.576134

                     E (Thermal)             CV                S
                      KCal/Mol        Cal/Mol-Kelvin    Cal/Mol-Kelvin
 Total                   44.538             12.440             65.593
 Electronic               0.000              0.000              0.000
 Translational            0.889              2.981             38.388
 Rotational               0.889              2.981             23.477
 Vibrational             42.761              6.478              3.727
 Vibration  1             0.672              1.734              1.618
 Vibration  2             0.717              1.604              1.232

 Optimization completed.
    -- Stationary point found.
 Normal termination of Gaussian 03 at Mon Mar 28 14:13:06 2016.
