 Gaussian 03, Revision D.02,
 Gaussian 03:  AM64L-G03RevD.02  1-Mar-2006

 ---------------------
 #MP2/aug-cc-pVDZ scan
 ---------------------

 ---------------------------------------
 C1H...OHH 90.0 degrees, mp2/aug-cc-pVDZ
 ---------------------------------------
 Symbolic Z-matrix:
 Charge =  0 Multiplicity = 1

 SCF Done:  E(RHF) =  -614.208705545     A.U. after   12 cycles
 E2 =    -0.6743329810D+00 EUMP2 =    -0.61488303852575D+03

 The electronic state is 1-A'.
 Alpha  occ. eigenvalues -- -104.83208 -20.56057 -11.31367 -11.25208 -10.55846
 Alpha  occ. eigenvalues --   -8.02600  -8.02314  -8.02289  -1.34177  -1.14557
 Alpha  occ. eigenvalues --   -1.00932  -0.84992  -0.70634  -0.65512  -0.61686
 Alpha  occ. eigenvalues --   -0.57348  -0.56628  -0.53465  -0.51408  -0.49459
 Alpha  occ. eigenvalues --   -0.44663  -0.44364
 Alpha virt. eigenvalues --    0.03360   0.04629   0.05047   0.05142   0.06466
 Alpha virt. eigenvalues --    0.07802   0.09344   0.10956   0.12970   0.14240
 Alpha virt. eigenvalues --    0.14331   0.15878   0.17123   0.17510   0.17759

 Mulliken atomic charges:
              1
     1  C   -0.105248
     2  Cl  -0.197717
     3  H   -0.026506
     4  H   -0.026506
     5  C    0.336433
     6  H    0.002187
     7  H    0.000685
     8  H    0.000685
     9  H    0.192977
    10  O   -0.337114
    11  H    0.160124
 Sum of Mulliken charges=   0.00000

 Dipole moment (field-independent basis, Debye):
    X=     2.1159    Y=     0.0618    Z=     0.0000  Tot=     2.1168
 Quadrupole moment (field-independent basis, Debye-Ang):
   XX=   -31.1814   YY=   -35.6250   ZZ=   -34.0263
   XY=    -7.7366   XZ=     0.0000   YZ=     0.0000

 SCF Done:  E(RHF) =  -614.208946237     A.U. after   10 cycles
 E2 =    -0.6739353643D+00 EUMP2 =    -0.61488288160120D+03
 SCF Done:  E(RHF) =  -614.209024740     A.U. after   10 cycles
 E2 =    -0.6735910463D+00 EUMP2 =    -0.61488261578601D+03
 SCF Done:  E(RHF) =  -614.208996981     A.U. after   10 cycles
 E2 =    -0.6732926863D+00 EUMP2 =    -0.61488228966750D+03
 SCF Done:  E(RHF) =  -614.208902459     A.U. after   10 cycles
 E2 =    -0.6730343756D+00 EUMP2 =    -0.61488193683496D+03
 SCF Done:  E(RHF) =  -614.208768668     A.U. after   10 cycles
 E2 =    -0.6728111996D+00 EUMP2 =    -0.61488157986709D+03
 SCF Done:  E(RHF) =  -614.208614493     A.U. after   10 cycles
 E2 =    -0.6726189239D+00 EUMP2 =    -0.61488123341704D+03
 SCF Done:  E(RHF) =  -614.208452706     A.U. after   10 cycles
 E2 =    -0.6724538099D+00 EUMP2 =    -0.61488090651618D+03
 SCF Done:  E(RHF) =  -614.208291690     A.U. after   10 cycles
 E2 =    -0.6723125180D+00 EUMP2 =    -0.61488060420784D+03
 SCF Done:  E(RHF) =  -614.208136644     A.U. after   10 cycles
 E2 =    -0.6721920647D+00 EUMP2 =    -0.61488032870821D+03
 SCF Done:  E(RHF) =  -614.207990459     A.U. after   10 cycles
 E2 =    -0.6720897903D+00 EUMP2 =    -0.61488008024898D+03
 SCF Done:  E(RHF) =  -614.207854408     A.U. after   10 cycles
 E2 =    -0.6720033284D+00 EUMP2 =    -0.61487985773585D+03
 SCF Done:  E(RHF) =  -614.207728702     A.U. after   10 cycles
 E2 =    -0.6719305655D+00 EUMP2 =    -0.61487965926746D+03
 SCF Done:  E(RHF) =  -614.207612942     A.U. after   10 cycles
 E2 =    -0.6718696077D+00 EUMP2 =    -0.61487948254994D+03
 SCF Done:  E(RHF) =  -614.207506447     A.U. after   10 cycles
 E2 =    -0.6718187469D+00 EUMP2 =    -0.61487932519379D+03

                         Standard orientation:
 ---------------------------------------------------------------------
 Center     Atomic     Atomic              Coordinates (Angstroms)
 Number     Number      Type              X           Y           Z
 ---------------------------------------------------------------------
    1          6             0        1.286678   -0.118965    0.000000
    2         17             0        0.000000    1.154707    0.000000
    3          1             0        1.111663   -0.729162    0.896000
    4          1             0        1.111663   -0.729162   -0.896000
    5          6             0        2.670562    0.511977    0.000000
    6          1             0        3.435036   -0.282559    0.000000
    7          1             0        2.813186    1.137213   -0.893316
    8          1             0        2.813186    1.137213    0.893316
    9          1             0       -2.814023   -1.688051    0.000000
   10          8             0       -3.487419   -2.368323    0.000000
   11          1             0       -4.314796   -1.886992    0.000000
 ---------------------------------------------------------------------

 SCF Done:  E(RHF) =  -614.207408471     A.U. after   10 cycles
 E2 =    -0.6717764364D+00 EUMP2 =    -0.61487918490713D+03

 1\1\GINC-N080\Scan\RMP2-FC\Aug-CC-pVDZ\C2H7Cl1O1\FYLIN\08-Apr-2016\1\\
 #MP2/aug-cc-pVDZ scan\\C1H...OHH 90.0 degrees, mp2/aug-cc-pVDZ\\0,1\C,
 0,0.,0.82237,0.\Cl,0,0.825357,-0.789016,0.\H,0,0.356564,1.347568,0.896
 \H,0,0.356564,1.347568,-0.896\C,0,-1.511627,0.65442,0.\H,0,-1.990226,1
 .647724,0.\H,0,-1.842105,0.104833,-0.893316\H,0,-1.842105,0.104833,0.8
 93316\H,2,roh,1,90.,5,180.,0\O,9,0.9572,2,180.,1,90.,0\H,10,0.9572,9,1
 04.52,1,180.,0\\roh=2.5,s,15,0.1\\Version=AM64L-G03RevD.02\HF=-614.208
 7055,-614.2089462,-614.2090247,-614.208997,-614.2089025,-614.2087687,-

 Normal termination of Gaussian 03 at Fri Apr  8 15:14:05 2016.
