 Gaussian 03, Revision D.02,
 Gaussian 03:  AM64L-G03RevD.02  1-Mar-2006

 -----------------------------------------------------------
 # MP2/aug-cc-pVDZ opt=modredundant nosymm geom=connectivity
 -----------------------------------------------------------

 ---------------------------------
 CHLB OPTIMIZED AT MP2/aug-cc-pVDZ
 ---------------------------------
 Symbolic Z-matrix:
 Charge =  0 Multiplicity = 1

 SCF Done:  E(RHF) =  -689.614506460     A.U. after   16 cycles
 E2 =    -0.9650823491D+00 EUMP2 =    -0.69057958880897D+03
 SCF Done:  E(RHF) =  -689.616482703     A.U. after   14 cycles
 E2 =    -0.9658924774D+00 EUMP2 =    -0.69058237518003D+03
 SCF Done:  E(RHF) =  -689.616945632     A.U. after   13 cycles
 E2 =    -0.9657139343D+00 EUMP2 =    -0.69058265956642D+03
 SCF Done:  E(RHF) =  -689.617039509     A.U. after   11 cycles
 E2 =    -0.9656338899D+00 EUMP2 =    -0.69058267339880D+03
 SCF Done:  E(RHF) =  -689.617039557     A.U. after   10 cycles
 E2 =    -0.9656349276D+00 EUMP2 =    -0.69058267448497D+03
 Optimization completed.
    -- Stationary point found.
 SCF Done:  E(RHF) =  -689.629648492     A.U. after   14 cycles
 E2 =    -0.9636709888D+00 EUMP2 =    -0.69059331948056D+03
 SCF Done:  E(RHF) =  -689.630476820     A.U. after   13 cycles
 E2 =    -0.9631616691D+00 EUMP2 =    -0.69059363848913D+03
 SCF Done:  E(RHF) =  -689.630503946     A.U. after   11 cycles
 E2 =    -0.9631398475D+00 EUMP2 =    -0.69059364379314D+03
 SCF Done:  E(RHF) =  -689.630500913     A.U. after   10 cycles
 E2 =    -0.9631431539D+00 EUMP2 =    -0.69059364406743D+03
 Optimization completed.
 SCF Done:  E(RHF) =  -689.639550153     A.U. after   14 cycles
 E2 =    -0.9616874734D+00 EUMP2 =    -0.69060123762609D+03
 E2 =    -0.9612963827D+00 EUMP2 =    -0.69060146605979D+03
 E2 =    -0.9612980725D+00 EUMP2 =    -0.69060147072745D+03
 E2 =    -0.9613002578D+00 EUMP2 =    -0.69060147111583D+03
 E2 =    -0.9603769304D+00 EUMP2 =    -0.69060596650155D+03
 E2 =    -0.9601185064D+00 EUMP2 =    -0.69060611127423D+03
 E2 =    -0.9601276087D+00 EUMP2 =    -0.69060611305598D+03
 E2 =    -0.9597959471D+00 EUMP2 =    -0.69060752632347D+03
 E2 =    -0.9596975570D+00 EUMP2 =    -0.69060762336348D+03
 E2 =    -0.9596885838D+00 EUMP2 =    -0.69060762409813D+03
 E2 =    -0.9600732780D+00 EUMP2 =    -0.69060600495998D+03
 E2 =    -0.9601419135D+00 EUMP2 =    -0.69060611143886D+03
 E2 =    -0.9601341039D+00 EUMP2 =    -0.69060611301235D+03
 E2 =    -0.9611294205D+00 EUMP2 =    -0.69060130094289D+03
 SCF Done:  E(RHF) =  -689.640153447     A.U. after   12 cycles
 E2 =    -0.9613163550D+00 EUMP2 =    -0.69060146980216D+03
 SCF Done:  E(RHF) =  -689.640172101     A.U. after   10 cycles
 E2 =    -0.9612987947D+00 EUMP2 =    -0.69060147089576D+03
 SCF Done:  E(RHF) =  -689.630537157     A.U. after   14 cycles
 E2 =    -0.9628493627D+00 EUMP2 =    -0.69059338652020D+03
 SCF Done:  E(RHF) =  -689.630479208     A.U. after   13 cycles
 E2 =    -0.9631624701D+00 EUMP2 =    -0.69059364167834D+03
 SCF Done:  E(RHF) =  -689.630496627     A.U. after   11 cycles
 E2 =    -0.9631470204D+00 EUMP2 =    -0.69059364364731D+03
 SCF Done:  E(RHF) =  -689.630500703     A.U. after   10 cycles
 E2 =    -0.9631431537D+00 EUMP2 =    -0.69059364385656D+03
    -- Stationary point found.
 SCF Done:  E(RHF) =  -689.617113060     A.U. after   14 cycles
 E2 =    -0.9652171369D+00 EUMP2 =    -0.69058233019659D+03
 SCF Done:  E(RHF) =  -689.617023602     A.U. after   13 cycles
 E2 =    -0.9656485634D+00 EUMP2 =    -0.69058267216583D+03
 SCF Done:  E(RHF) =  -689.617035645     A.U. after   10 cycles
 E2 =    -0.9656382587D+00 EUMP2 =    -0.69058267390411D+03
 SCF Done:  E(RHF) =  -689.617043077     A.U. after   10 cycles
 E2 =    -0.9656312013D+00 EUMP2 =    -0.69058267427829D+03
 Optimization completed.
    -- Stationary point found.

                          Input orientation:
 ---------------------------------------------------------------------
 Center     Atomic     Atomic              Coordinates (Angstroms)
 Number     Number      Type              X           Y           Z
 ---------------------------------------------------------------------
    1          6             0       -0.025646   -0.013440   -0.103108
    2          1             0       -0.586185   -0.952079   -0.114402
    3          6             0        1.381317   -0.016703   -0.060191
    4          1             0        1.919946   -0.968514   -0.090347
    5          6             0        2.078291    1.192864    0.097715
    6          1             0        3.169246    1.197564    0.173651
    7          6             0        1.361583    2.404631    0.073507
    8          1             0        1.907932    3.353356    0.067986
    9          6             0       -0.051730    2.445831    0.032707
   10          1             0       -0.433217    3.345801   -0.464102
   11          6             0       -0.729649    1.204489   -0.090353
   12         17             0       -2.400210    1.095600    0.476936
 ---------------------------------------------------------------------

 Alpha  occ. eigenvalues -- -104.83746 -11.31986 -11.26745 -11.26551 -11.26497
 Alpha  occ. eigenvalues --  -11.26388 -11.26160 -10.56309  -8.03083  -8.02754
 Alpha  occ. eigenvalues --   -8.02742  -1.18538  -1.11542  -1.03195  -0.99654
 Alpha  occ. eigenvalues --   -0.84408  -0.82133  -0.70580  -0.65061  -0.64407
 Alpha  occ. eigenvalues --   -0.60099  -0.58417  -0.54629  -0.51433  -0.50275
 Alpha  occ. eigenvalues --   -0.46271  -0.45231  -0.35030  -0.33418
 Alpha virt. eigenvalues --    0.03269   0.04009   0.04643   0.05919   0.06332
 Alpha virt. eigenvalues --    0.07074   0.09033   0.09766   0.10386   0.12114
 Alpha virt. eigenvalues --    0.13083   0.13515   0.13930   0.14300   0.14951

 Mulliken atomic charges:
              1
     1  C    0.742510
     2  H   -0.322300
     3  C    0.538164
     4  H   -0.381227
     5  C    0.345919
     6  H   -0.392729
     7  C    0.518670
     8  H   -0.399221
     9  C    0.561483
    10  H   -0.168047
    11  C   -0.824530
    12  Cl  -0.218692
 Sum of Mulliken charges=   0.00000

 Dipole moment (field-independent basis, Debye):
    X=     2.3289    Y=    -0.1452    Z=    -0.5326  Tot=     2.3935
 Quadrupole moment (field-independent basis, Debye-Ang):
   XX=   -47.8551   YY=   -43.1389   ZZ=   -52.7304
   XY=     2.9566   XZ=     0.7323   YZ=    -1.4615

 Normal termination of Gaussian 03 at Mon Mar 20 19:06:43 2017.
