 Gaussian 03, Revision D.02,
 Gaussian 03:  AM64L-G03RevD.02  1-Mar-2006

 ---------------------
 #MP2/aug-cc-pVDZ scan
 ---------------------

 ---------------------------------------
 CL1...OHH 90.0 degrees, mp2/aug-cc-pVDZ
 ---------------------------------------
 Symbolic Z-matrix:
 Charge =  0 Multiplicity = 1

 SCF Done:  E(RHF) =  -1072.83551744     A.U. after   13 cycles
 E2 =    -0.8372367351D+00 EUMP2 =    -0.10736727541740D+04

 The electronic state is 1-A.
 Alpha  occ. eigenvalues -- -104.84291-104.78358 -20.68475 -11.24932 -11.21089
 Alpha  occ. eigenvalues --  -10.56484 -10.51010  -8.03575  -8.02588  -8.02553
 Alpha  occ. eigenvalues --   -7.97762  -7.97474  -7.97470  -1.57271  -1.15532
 Alpha  occ. eigenvalues --   -1.08147  -0.96777  -0.87184  -0.86053  -0.72178
 Alpha  occ. eigenvalues --   -0.70605  -0.59307  -0.55171  -0.52234  -0.49587
 Alpha  occ. eigenvalues --   -0.43546  -0.42517  -0.40124  -0.38935  -0.31052
 Alpha virt. eigenvalues --    0.01017   0.03950   0.05161   0.06088   0.07234
 Alpha virt. eigenvalues --    0.07794   0.10848   0.11828   0.13174   0.13737
 Alpha virt. eigenvalues --    0.15376   0.16825   0.17049   0.18524   0.18795

 Mulliken atomic charges:
              1
     1  C   -0.433619
     2  Cl   0.037309
     3  Cl  -0.177384
     4  H    0.024820
     5  C    0.565283
     6  H   -0.023172
     7  H   -0.032912
     8  H   -0.014036
     9  O   -0.289631
    10  H    0.169859
    11  H    0.173483
 Sum of Mulliken charges=   0.00000

 Dipole moment (field-independent basis, Debye):
    X=     6.9915    Y=     0.6608    Z=    -0.2699  Tot=     7.0278
 Quadrupole moment (field-independent basis, Debye-Ang):
   XX=   -29.4594   YY=   -46.7792   ZZ=   -44.3201
   XY=    -5.3251   XZ=    -2.2370   YZ=     1.8952

 SCF Done:  E(RHF) =  -1072.90702270     A.U. after   12 cycles
 E2 =    -0.8366443704D+00 EUMP2 =    -0.10737436670664D+04
 SCF Done:  E(RHF) =  -1072.96240011     A.U. after   12 cycles
 E2 =    -0.8352573680D+00 EUMP2 =    -0.10737976574788D+04
 SCF Done:  E(RHF) =  -1073.00522731     A.U. after   11 cycles
 E2 =    -0.8332395232D+00 EUMP2 =    -0.10738384668336D+04
 SCF Done:  E(RHF) =  -1073.03792484     A.U. after   11 cycles
 E2 =    -0.8309829299D+00 EUMP2 =    -0.10738689077681D+04
 SCF Done:  E(RHF) =  -1073.06250534     A.U. after   11 cycles
 E2 =    -0.8287950039D+00 EUMP2 =    -0.10738913003446D+04
 SCF Done:  E(RHF) =  -1073.08071456     A.U. after   11 cycles
 E2 =    -0.8268340733D+00 EUMP2 =    -0.10739075486355D+04
 SCF Done:  E(RHF) =  -1073.09402493     A.U. after   11 cycles
 E2 =    -0.8251487344D+00 EUMP2 =    -0.10739191736603D+04
 SCF Done:  E(RHF) =  -1073.10363438     A.U. after   10 cycles
 E2 =    -0.8237281794D+00 EUMP2 =    -0.10739273625640D+04
 SCF Done:  E(RHF) =  -1073.11048985     A.U. after   10 cycles
 E2 =    -0.8225377869D+00 EUMP2 =    -0.10739330276384D+04
 E2 =    -0.8215391670D+00 EUMP2 =    -0.10739368625492D+04
 E2 =    -0.8206988318D+00 EUMP2 =    -0.10739393895696D+04
 E2 =    -0.8199901172D+00 EUMP2 =    -0.10739409974716D+04
 E2 =    -0.8193920915D+00 EUMP2 =    -0.10739419717502D+04
 E2 =    -0.8188878493D+00 EUMP2 =    -0.10739425188358D+04
 E2 =    -0.8184632168D+00 EUMP2 =    -0.10739427854368D+04
 E2 =    -0.8181059840D+00 EUMP2 =    -0.10739428738069D+04
 E2 =    -0.8178055697D+00 EUMP2 =    -0.10739428537144D+04
 E2 =    -0.8175527950D+00 EUMP2 =    -0.10739427715864D+04
 E2 =    -0.8173397592D+00 EUMP2 =    -0.10739426574645D+04
 E2 =    -0.8165147173D+00 EUMP2 =    -0.10739418753820D+04
 E2 =    -0.8164520982D+00 EUMP2 =    -0.10739418010962D+04
 E2 =    -0.8163974604D+00 EUMP2 =    -0.10739417362115D+04
 E2 =    -0.8163496892D+00 EUMP2 =    -0.10739416798103D+04
 E2 =    -0.8163078374D+00 EUMP2 =    -0.10739416309179D+04
 E2 =    -0.8162710873D+00 EUMP2 =    -0.10739415885766D+04
 E2 =    -0.8162387233D+00 EUMP2 =    -0.10739415518911D+04
 E2 =    -0.8162101200D+00 EUMP2 =    -0.10739415200604D+04
 E2 =    -0.8161847325D+00 EUMP2 =    -0.10739414923880D+04
 E2 =    -0.8161620914D+00 EUMP2 =    -0.10739414682809D+04
 SCF Done:  E(RHF) =  -1073.12530544     A.U. after    9 cycles
 E2 =    -0.8161417971D+00 EUMP2 =    -0.10739414472392D+04
 SCF Done:  E(RHF) =  -1073.12530533     A.U. after    9 cycles
 E2 =    -0.8161235138D+00 EUMP2 =    -0.10739414288428D+04
 SCF Done:  E(RHF) =  -1073.12530578     A.U. after    9 cycles
 E2 =    -0.8161069619D+00 EUMP2 =    -0.10739414127393D+04
 SCF Done:  E(RHF) =  -1073.12530672     A.U. after    8 cycles
 E2 =    -0.8160919097D+00 EUMP2 =    -0.10739413986299D+04
 SCF Done:  E(RHF) =  -1073.12530810     A.U. after    8 cycles
 E2 =    -0.8160781698D+00 EUMP2 =    -0.10739413862649D+04
 SCF Done:  E(RHF) =  -1073.12530984     A.U. after    8 cycles
 E2 =    -0.8160655843D+00 EUMP2 =    -0.10739413754284D+04
 SCF Done:  E(RHF) =  -1073.12531191     A.U. after    8 cycles
 E2 =    -0.8160540236D+00 EUMP2 =    -0.10739413659367D+04
 SCF Done:  E(RHF) =  -1073.12531425     A.U. after    8 cycles
 E2 =    -0.8160433791D+00 EUMP2 =    -0.10739413576329D+04
 SCF Done:  E(RHF) =  -1073.12531682     A.U. after    8 cycles
 E2 =    -0.8160335595D+00 EUMP2 =    -0.10739413503828D+04

                         Standard orientation:
 ---------------------------------------------------------------------
 Center     Atomic     Atomic              Coordinates (Angstroms)
 Number     Number      Type              X           Y           Z
 ---------------------------------------------------------------------
    1          6             0        1.516558    0.370697   -0.397657
    2         17             0       -0.272964    0.244194   -0.272268
    3         17             0        2.281533   -1.160663    0.153581
    4          1             0        1.741637    0.455773   -1.467162
    5          6             0        2.026582    1.544625    0.415640
    6          1             0        3.119436    1.615836    0.309122
    7          1             0        1.562013    2.472411    0.049394
    8          1             0        1.773022    1.405106    1.475946
    9          8             0       -6.243462   -0.177866    0.146078
   10          1             0       -6.900615    0.231421   -0.416831
   11          1             0       -6.752313   -0.669578    0.790688
 ---------------------------------------------------------------------

 SCF Done:  E(RHF) =  -1073.12531958     A.U. after    8 cycles
 E2 =    -0.8160244872D+00 EUMP2 =    -0.10739413440714D+04

 1\1\GINC-N081\Scan\RMP2-FC\Aug-CC-pVDZ\C2H6Cl2O1\FYLIN\13-Apr-2016\1\\
 #MP2/aug-cc-pVDZ scan\\CL1...OHH 90.0 degrees, mp2/aug-cc-pVDZ\\0,1\C,
 0,0.,0.338016,0.43738\Cl,0,1.473127,-0.559367,-0.071261\Cl,0,-1.473129
 ,-0.559363,-0.071261\H,0,0.000002,0.326972,1.533563\C,0,0.000004,1.737
 706,-0.146189\H,0,-0.898183,2.275207,0.193075\H,0,0.898132,2.275242,0.
 193175\H,0,0.000066,1.686646,-1.244096\X,2,1.,1,90.,5,0.,0\O,2,roh,9,9
 0.,1,180.,0\H,10,0.9572,2,127.74,9,90.,0\H,10,0.9572,2,127.74,9,-90.,0
 \\roh=1.5,s,45,0.1\\Version=AM64L-G03RevD.02\HF=-1072.8355174,-1072.90

 Normal termination of Gaussian 03 at Wed Apr 13 12:55:21 2016.
