 Gaussian 03, Revision D.02,
 Gaussian 03:  AM64L-G03RevD.02  1-Mar-2006

 ------------------------
 #MP3/6-31++G(3d,3p) scan
 ------------------------

 --------------------
 C1H...He 0.0 degrees
 --------------------
 Symbolic Z-matrix:
 Charge =  0 Multiplicity = 1

 SCF Done:  E(RHF) =  -692.364241168     A.U. after   14 cycles

 The electronic state is 1-A'.
 Alpha  occ. eigenvalues -- -104.83656 -11.28049 -11.25135 -11.25123 -11.24891
 Alpha  occ. eigenvalues --  -11.24891 -11.24692 -10.56700  -8.03714  -8.03063
 Alpha  occ. eigenvalues --   -8.03055  -1.21070  -1.14742  -1.04444  -1.01935
 Alpha  occ. eigenvalues --   -0.94533  -0.83377  -0.79850  -0.69353  -0.63281
 Alpha  occ. eigenvalues --   -0.63269  -0.59291  -0.55563  -0.53249  -0.50873
 Alpha  occ. eigenvalues --   -0.47387  -0.46877  -0.46281  -0.34070  -0.32771
 Alpha virt. eigenvalues --    0.04120   0.05008   0.05451   0.07017   0.07324
 Alpha virt. eigenvalues --    0.09700   0.09902   0.10059   0.12545   0.13170
 Alpha virt. eigenvalues --    0.13995   0.15490   0.15586   0.17595   0.18528

 Mulliken atomic charges:
              1
     1  C    0.025644
     2  H    0.240644
     3  C   -0.568196
     4  H    0.252245
     5  C   -0.202868
     6  H    0.242807
     7  C   -0.568195
     8  H    0.252245
     9  C    0.025644
    10  H    0.240644
    11  C   -0.366344
    12  Cl   0.587422
    13  He  -0.161692
 Sum of Mulliken charges=   0.00000

 Dipole moment (field-independent basis, Debye):
    X=     0.0000    Y=    -0.4551    Z=     0.0000  Tot=     0.4551
 Quadrupole moment (field-independent basis, Debye-Ang):
   XX=   -44.2446   YY=   -43.0814   ZZ=   -54.0670
   XY=     0.0000   XZ=     0.0000   YZ=     0.0000

 SCF Done:  E(RHF) =  -692.397127414     A.U. after   13 cycles
 SCF Done:  E(RHF) =  -692.421581704     A.U. after   12 cycles
 SCF Done:  E(RHF) =  -692.439521825     A.U. after   12 cycles
 SCF Done:  E(RHF) =  -692.452503247     A.U. after   12 cycles
 SCF Done:  E(RHF) =  -692.461779236     A.U. after   12 cycles
 SCF Done:  E(RHF) =  -692.468337618     A.U. after   12 cycles
 SCF Done:  E(RHF) =  -692.472933887     A.U. after   11 cycles
 SCF Done:  E(RHF) =  -692.476130577     A.U. after   11 cycles
 SCF Done:  E(RHF) =  -692.478338508     A.U. after   11 cycles
 SCF Done:  E(RHF) =  -692.483025640     A.U. after    6 cycles
 SCF Done:  E(RHF) =  -692.483023711     A.U. after    6 cycles
 SCF Done:  E(RHF) =  -692.483021883     A.U. after    6 cycles
 SCF Done:  E(RHF) =  -692.483020172     A.U. after    6 cycles
 SCF Done:  E(RHF) =  -692.483018591     A.U. after    6 cycles
 SCF Done:  E(RHF) =  -692.483017145     A.U. after    6 cycles
 SCF Done:  E(RHF) =  -692.483015840     A.U. after    6 cycles
 SCF Done:  E(RHF) =  -692.483014674     A.U. after    5 cycles
 SCF Done:  E(RHF) =  -692.483013645     A.U. after    5 cycles

                         Standard orientation:
 ---------------------------------------------------------------------
 Center     Atomic     Atomic              Coordinates (Angstroms)
 Number     Number      Type              X           Y           Z
 ---------------------------------------------------------------------
    1          6             0        1.226543   -0.448585    0.000000
    2          1             0        2.164857    0.111454    0.000000
    3          6             0        1.217204   -1.855635    0.000000
    4          1             0        2.167243   -2.398030    0.000000
    5          6             0        0.000000   -2.562215    0.000000
    6          1             0        0.000000   -3.655648    0.000000
    7          6             0       -1.217204   -1.855635    0.000000
    8          1             0       -2.167243   -2.398031    0.000000
    9          6             0       -1.226543   -0.448584    0.000000
   10          1             0       -2.164857    0.111455    0.000000
   11          6             0        0.000000    0.236992    0.000000
   12         17             0        0.000000    1.991093    0.000000
   13          2             0        0.000000    7.991093    0.000000
 ---------------------------------------------------------------------

 SCF Done:  E(RHF) =  -692.483012747     A.U. after    5 cycles
 Normal termination of Gaussian 03 at Fri May  6 07:54:26 2016.
