 Gaussian 03, Revision D.02,
 Gaussian 03:  AM64L-G03RevD.02  1-Mar-2006

 ------------------------
 #MP3/6-31++G(3d,3p) scan
 ------------------------

 --------------------
 C1H...Ne 0.0 degrees
 --------------------
 Symbolic Z-matrix:
 Charge =  0 Multiplicity = 1

 SCF Done:  E(RHF) =  -666.335558151     A.U. after   12 cycles

 The electronic state is 1-A'.
 Alpha  occ. eigenvalues -- -104.81949 -32.89453 -11.22600 -11.21182 -10.55038
 Alpha  occ. eigenvalues --   -8.02293  -8.01251  -8.01248  -2.12242  -1.20373
 Alpha  occ. eigenvalues --   -1.03893  -1.00168  -1.00166  -0.91955  -0.77948
 Alpha  occ. eigenvalues --   -0.60744  -0.56398  -0.51880  -0.49848  -0.42497
 Alpha  occ. eigenvalues --   -0.42269  -0.39662
 Alpha virt. eigenvalues --    0.05107   0.06630   0.07085   0.07851   0.09525
 Alpha virt. eigenvalues --    0.10003   0.14658   0.15158   0.15666   0.17339
 Alpha virt. eigenvalues --    0.18553   0.20107   0.21213   0.21520   0.23076

 Mulliken atomic charges:
              1
     1  C   -0.492055
     2  Cl   0.211539
     3  H    0.175921
     4  H    0.175921
     5  C   -0.644174
     6  H    0.163929
     7  H    0.156135
     8  H    0.156135
     9  Ne   0.096648
 Sum of Mulliken charges=   0.00000

 Dipole moment (field-independent basis, Debye):
    X=     0.0363    Y=    -1.3526    Z=     0.0000  Tot=     1.3531
 Quadrupole moment (field-independent basis, Debye-Ang):
   XX=   -32.1386   YY=   -26.2048   ZZ=   -31.3525
   XY=    -0.1119   XZ=     0.0000   YZ=     0.0000

 SCF Done:  E(RHF) =  -666.418683832     A.U. after   11 cycles
 SCF Done:  E(RHF) =  -666.480538241     A.U. after   10 cycles
 SCF Done:  E(RHF) =  -666.525887808     A.U. after   13 cycles
 SCF Done:  E(RHF) =  -666.558653792     A.U. after   10 cycles
 SCF Done:  E(RHF) =  -666.582016322     A.U. after   10 cycles
 SCF Done:  E(RHF) =  -666.598483441     A.U. after   10 cycles
 SCF Done:  E(RHF) =  -666.609978892     A.U. after    9 cycles
 SCF Done:  E(RHF) =  -666.617939754     A.U. after    9 cycles
 SCF Done:  E(RHF) =  -666.623419089     A.U. after    9 cycles
 SCF Done:  E(RHF) =  -666.634877830     A.U. after    6 cycles
 SCF Done:  E(RHF) =  -666.634866620     A.U. after    6 cycles
 SCF Done:  E(RHF) =  -666.634855845     A.U. after    6 cycles
 SCF Done:  E(RHF) =  -666.634845533     A.U. after    6 cycles
 SCF Done:  E(RHF) =  -666.634835713     A.U. after    6 cycles
 SCF Done:  E(RHF) =  -666.634826413     A.U. after    6 cycles
 SCF Done:  E(RHF) =  -666.634817657     A.U. after    6 cycles
 SCF Done:  E(RHF) =  -666.634809468     A.U. after    6 cycles
 SCF Done:  E(RHF) =  -666.634801862     A.U. after    5 cycles

                         Standard orientation:
 ---------------------------------------------------------------------
 Center     Atomic     Atomic              Coordinates (Angstroms)
 Number     Number      Type              X           Y           Z
 ---------------------------------------------------------------------
    1          6             0       -0.289698   -2.340698    0.000000
    2         17             0       -0.289698   -0.530234    0.000000
    3          1             0       -0.846483   -2.645594    0.896000
    4          1             0       -0.846483   -2.645594   -0.896000
    5          6             0        1.132276   -2.880338    0.000000
    6          1             0        1.105420   -3.982603    0.000000
    7          1             0        1.676962   -2.541842   -0.893316
    8          1             0        1.676962   -2.541842    0.893316
    9         10             0       -0.289698    5.469766    0.000000
 ---------------------------------------------------------------------

 SCF Done:  E(RHF) =  -666.634794851     A.U. after    5 cycles
 Normal termination of Gaussian 03 at Thu May  5 18:16:47 2016.
