 Gaussian 03, Revision D.02,
 Gaussian 03:  AM64L-G03RevD.02  1-Mar-2006

 -----------------------------
 #MP2/aug-cc-pVDZ Opt=Z-matrix
 -----------------------------

 ---------------------------------------
 C1H...OHH 90.0 degrees, mp2/aug-cc-pVDZ
 ---------------------------------------
 Symbolic Z-matrix:
 Charge =  0 Multiplicity = 1

 SCF Done:  E(RHF) =  -614.206268282     A.U. after   12 cycles
 E2 =    -0.6745752599D+00 EUMP2 =    -0.61488084354159D+03
 SCF Done:  E(RHF) =  -614.206753094     A.U. after    9 cycles
 E2 =    -0.6743566813D+00 EUMP2 =    -0.61488110977500D+03
 SCF Done:  E(RHF) =  -614.207725746     A.U. after   10 cycles
 E2 =    -0.6737459986D+00 EUMP2 =    -0.61488147174466D+03
 SCF Done:  E(RHF) =  -614.207813226     A.U. after    9 cycles
 E2 =    -0.6736635310D+00 EUMP2 =    -0.61488147675657D+03
 Optimization completed.
    -- Stationary point found.

                         Standard orientation:
 ---------------------------------------------------------------------
 Center     Atomic     Atomic              Coordinates (Angstroms)
 Number     Number      Type              X           Y           Z
 ---------------------------------------------------------------------
    1          6             0       -0.349041    0.443894    0.494782
    2         17             0       -1.251243   -1.015656   -0.082733
    3          1             0       -0.532727    0.508024    1.575492
    4          1             0        0.714339    0.234750    0.317950
    5          6             0       -0.815414    1.691865   -0.238900
    6          1             0       -0.252238    2.565129    0.129816
    7          1             0       -0.644082    1.594140   -1.320737
    8          1             0       -1.887413    1.866596   -0.066962
    9          8             0        2.972525   -0.209387   -0.057570
   10          1             0        3.722850    0.100887    0.449356
   11          1             0        3.356932   -0.742839   -0.753194
 ---------------------------------------------------------------------

 The electronic state is 1-A.
 Alpha  occ. eigenvalues -- -104.80458 -20.58881 -11.28614 -11.23355 -10.53078
 Alpha  occ. eigenvalues --   -7.99837  -7.99535  -7.99530  -1.36928  -1.11846
 Alpha  occ. eigenvalues --   -0.98643  -0.82658  -0.73150  -0.63542  -0.60227
 Alpha  occ. eigenvalues --   -0.59109  -0.54408  -0.52200  -0.51261  -0.49003
 Alpha  occ. eigenvalues --   -0.41838  -0.41641
 Alpha virt. eigenvalues --    0.02707   0.04536   0.05025   0.05903   0.06847
 Alpha virt. eigenvalues --    0.07444   0.09776   0.10726   0.13198   0.14664
 Alpha virt. eigenvalues --    0.15511   0.16620   0.17572   0.18139   0.18487

 Mulliken atomic charges:
              1
     1  C   -0.147331
     2  Cl  -0.180279
     3  H    0.041638
     4  H    0.011979
     5  C    0.336601
     6  H   -0.015557
     7  H   -0.002114
     8  H   -0.021970
     9  O   -0.366256
    10  H    0.169960
    11  H    0.173329
 Sum of Mulliken charges=   0.00000

 Dipole moment (field-independent basis, Debye):
    X=     3.4990    Y=     1.6140    Z=     0.3058  Tot=     3.8654
 Quadrupole moment (field-independent basis, Debye-Ang):
   XX=   -22.1353   YY=   -33.8900   ZZ=   -31.8353
   XY=    -3.1889   XZ=    -1.0075   YZ=     2.0139

 1\1\GINC-N082\FOpt\RMP2-FC\Aug-CC-pVDZ\C2H7Cl1O1\FYLIN\28-Mar-2016\1\\
 #MP2/aug-cc-pVDZ Opt=Z-matrix\\C1H...OHH 90.0 degrees, mp2/aug-cc-pVDZ
 \\0,1\C,0,0.,0.82237,0.\Cl,0,0.825357,-0.789016,0.\H,0,0.356564,1.3475
 68,0.896\H,0,0.356564,1.347568,-0.896\C,0,-1.511627,0.65442,0.\H,0,-1.
 990226,1.647724,0.\H,0,-1.842105,0.104833,-0.893316\H,0,-1.842105,0.10
 4833,0.893316\X,4,1.,1,90.,5,0.,0\O,4,roh,9,90.,1,180.,0\H,10,0.9572,4
 ,127.74,9,90.,0\H,10,0.9572,4,127.74,9,-90.,0\\roh=2.33188315\\Version
 =AM64L-G03RevD.02\State=1-A\HF=-614.2078132\MP2=-614.8814768\RMSD=3.56

 Normal termination of Gaussian 03 at Mon Mar 28 16:58:41 2016.
