 Gaussian 03, Revision D.02,
 Gaussian 03:  AM64L-G03RevD.02  1-Mar-2006

 -----------------------------
 #MP2/aug-cc-pVDZ Opt=Z-matrix
 -----------------------------

 ---------------------------------------
 C2H...OHH 90.0 degrees, mp2/aug-cc-pVDZ
 ---------------------------------------
 Symbolic Z-matrix:
 Charge =  0 Multiplicity = 1

 SCF Done:  E(RHF) =  -765.689879277     A.U. after   15 cycles
 E2 =    -0.1181987203D+01 EUMP2 =    -0.76687186648074D+03
 SCF Done:  E(RHF) =  -765.690356955     A.U. after   11 cycles
 E2 =    -0.1181776995D+01 EUMP2 =    -0.76687213395023D+03
 SCF Done:  E(RHF) =  -765.691302698     A.U. after   22 cycles
 E2 =    -0.1181191145D+01 EUMP2 =    -0.76687249384302D+03
 SCF Done:  E(RHF) =  -765.691380954     A.U. after   12 cycles
 E2 =    -0.1181117279D+01 EUMP2 =    -0.76687249823307D+03
 Optimization completed.
    -- Stationary point found.

                         Standard orientation:
 ---------------------------------------------------------------------
 Center     Atomic     Atomic              Coordinates (Angstroms)
 Number     Number      Type              X           Y           Z
 ---------------------------------------------------------------------
    1          6             0       -0.595259    0.317552    0.000000
    2          1             0       -1.533573    0.877591    0.000000
    3          6             0       -0.585920   -1.089498    0.000000
    4          1             0       -1.535959   -1.631893    0.000000
    5          6             0        0.631284   -1.796078    0.000000
    6          1             0        0.631284   -2.889511    0.000000
    7          6             0        1.848488   -1.089498    0.000000
    8          1             0        2.798527   -1.631894    0.000000
    9          6             0        1.857827    0.317553    0.000000
   10          1             0        2.796141    0.877592    0.000000
   11          6             0        0.631284    1.003129    0.000000
   12         17             0        0.631284    2.757230    0.000000
   13          8             0       -3.559686   -2.787277    0.000000
   14          1             0       -4.068486   -3.077760    0.756950
   15          1             0       -4.068486   -3.077760   -0.756950
 ---------------------------------------------------------------------

 The electronic state is 1-A'.
 Alpha  occ. eigenvalues -- -104.83261 -20.59112 -11.30615 -11.25432 -11.25320
 Alpha  occ. eigenvalues --  -11.25198 -11.24763 -11.24630 -10.55856  -8.02635
 Alpha  occ. eigenvalues --   -8.02307  -8.02295  -1.37155  -1.17783  -1.10808
 Alpha  occ. eigenvalues --   -1.01971  -0.98685  -0.83443  -0.80855  -0.73371
 Alpha  occ. eigenvalues --   -0.69746  -0.64043  -0.63361  -0.60750  -0.58569
 Alpha  occ. eigenvalues --   -0.57746  -0.53135  -0.52433  -0.50465  -0.49998
 Alpha  occ. eigenvalues --   -0.45886  -0.44798  -0.33954  -0.32660
 Alpha virt. eigenvalues --    0.02556   0.04061   0.05040   0.05293   0.05681
 Alpha virt. eigenvalues --    0.06480   0.08192   0.09955   0.10298   0.10384
 Alpha virt. eigenvalues --    0.12699   0.12829   0.13864   0.14357   0.14787

 Mulliken atomic charges:
              1
     1  C    0.134146
     2  H   -0.365798
     3  C    1.018535
     4  H   -0.467212
     5  C   -0.029843
     6  H   -0.427804
     7  C    0.845277
     8  H   -0.423357
     9  C    0.404748
    10  H   -0.378879
    11  C    0.086314
    12  Cl  -0.384867
    13  O   -0.354337
    14  H    0.171538
    15  H    0.171538
 Sum of Mulliken charges=   0.00000

 Dipole moment (field-independent basis, Debye):
    X=    -2.3016    Y=    -3.3829    Z=     0.0000  Tot=     4.0916
 Quadrupole moment (field-independent basis, Debye-Ang):
   XX=   -35.6437   YY=   -50.1477   ZZ=   -57.4241
   XY=     8.8103   XZ=     0.0000   YZ=     0.0000

 1\1\GINC-N086\FOpt\RMP2-FC\Aug-CC-pVDZ\C6H7Cl1O1\FYLIN\28-Mar-2016\1\\
 #MP2/aug-cc-pVDZ Opt=Z-matrix\\C2H...OHH 90.0 degrees, mp2/aug-cc-pVDZ
 \\0,1\C,0,0.17303,-1.226543,0.\H,0,-0.387009,-2.164857,0.\C,0,1.58008,
 -1.217204,0.\H,0,2.122475,-2.167243,0.\C,0,2.28666,0.,0.\H,0,3.380093,
 0.,0.\C,0,1.58008,1.217204,0.\H,0,2.122476,2.167243,0.\C,0,0.173029,1.
 226543,0.\H,0,-0.38701,2.164857,0.\C,0,-0.512547,0.,0.\Cl,0,-2.266648,
 0.,0.\X,4,1.,3,90.,5,0.,0\O,4,roh,13,90.,3,180.,0\H,14,0.9572,4,127.74
 ,13,90.,0\H,14,0.9572,4,127.74,13,-90.,0\\roh=2.33031722\\Version=AM64

 Normal termination of Gaussian 03 at Mon Mar 28 19:10:49 2016.
