 Gaussian 03, Revision D.02,

 ----------------------------------------------------------------------
 #MP2/aug-cc-pVDZ opt=(tight,maxcycle=200) pop=(mk,dipole) density=curr
 ent
 ----------------------------------------------------------------------

 ---------------------------------
 CHLB OPTIMIZED AT MP2/aug-cc-pVDZ
 ---------------------------------
 Symbolic Z-matrix:
 Charge =  0 Multiplicity = 1

 SCF Done:  E(RHF) =  -689.650138444     A.U. after   14 cycles
 E2 =    -0.9531862344D+00 EUMP2 =    -0.69060332467814D+03
 SCF Done:  E(RHF) =  -689.647375762     A.U. after   13 cycles
 E2 =    -0.9601853067D+00 EUMP2 =    -0.69060756106849D+03
 SCF Done:  E(RHF) =  -689.647880068     A.U. after   11 cycles
 E2 =    -0.9597368431D+00 EUMP2 =    -0.69060761691090D+03
 SCF Done:  E(RHF) =  -689.647951882     A.U. after   16 cycles
 E2 =    -0.9596720634D+00 EUMP2 =    -0.69060762394543D+03
 SCF Done:  E(RHF) =  -689.647934894     A.U. after   17 cycles
 E2 =    -0.9596892278D+00 EUMP2 =    -0.69060762412151D+03
 SCF Done:  E(RHF) =  -689.647932668     A.U. after   16 cycles
 E2 =    -0.9596914615D+00 EUMP2 =    -0.69060762412943D+03
 Optimization completed.
    -- Stationary point found.

                         Standard orientation:
 ---------------------------------------------------------------------
 Center     Atomic     Atomic              Coordinates (Angstroms)
 Number     Number      Type              X           Y           Z
 ---------------------------------------------------------------------
    1          6             0        0.173030   -1.226543    0.000000
    2          1             0       -0.387009   -2.164857    0.000000
    3          6             0        1.580080   -1.217204    0.000000
    4          1             0        2.122475   -2.167243    0.000000
    5          6             0        2.286660    0.000000    0.000000
    6          1             0        3.380093    0.000000    0.000000
    7          6             0        1.580080    1.217204    0.000000
    8          1             0        2.122476    2.167243    0.000000
    9          6             0        0.173029    1.226543    0.000000
   10          1             0       -0.387010    2.164857    0.000000
   11          6             0       -0.512547    0.000000    0.000000
   12         17             0       -2.266648    0.000000    0.000000
 ---------------------------------------------------------------------

 Normal termination of Gaussian 03 at Tue Mar 22 10:23:09 2016.
 Gaussian 03:  AM64L-G03RevD.02  1-Mar-2006

 ----------------------------------------------------------------
 #MP2/aug-cc-pVDZ NOSYMM SCF=TIGHT GEOM=ALLCHECK FREQ IOP(7/33=1)
 ----------------------------------------------------------------

 CHLB OPTIMIZED AT MP2/aug-cc-pVDZ
 ---------------------------------
 Redundant internal coordinates taken from checkpoint file:
 CHLB_OPT_FREQ_MP2.chk
 Charge =  0 Multiplicity = 1

 SCF Done:  E(RHF) =  -689.647932667     A.U. after   14 cycles
 E2 =    -0.9596914615D+00 EUMP2 =    -0.69060762412834D+03

 Alpha  occ. eigenvalues -- -104.84029 -11.31581 -11.26427 -11.26426 -11.26317
 Alpha  occ. eigenvalues --  -11.26307 -11.25921 -10.56620  -8.03399  -8.03069
 Alpha  occ. eigenvalues --   -8.03056  -1.18760  -1.11788  -1.03126  -0.99724
 Alpha  occ. eigenvalues --   -0.84584  -0.81978  -0.70817  -0.64960  -0.64483
 Alpha  occ. eigenvalues --   -0.60289  -0.58835  -0.54073  -0.51759  -0.51171
 Alpha  occ. eigenvalues --   -0.46810  -0.45596  -0.35092  -0.33658
 Alpha virt. eigenvalues --    0.03330   0.04011   0.04619   0.05880   0.06318
 Alpha virt. eigenvalues --    0.09069   0.09294   0.09753   0.11792   0.11953
 Alpha virt. eigenvalues --    0.13141   0.13813   0.14379   0.14417   0.14581

 Mulliken atomic charges:
              1
     1  C    0.255768
     2  H   -0.352246
     3  C    0.825209
     4  H   -0.412962
     5  C    0.141055
     6  H   -0.410772
     7  C    0.825210
     8  H   -0.412962
     9  C    0.255765
    10  H   -0.352246
    11  C    0.013573
    12  Cl  -0.375392
 Sum of Mulliken charges=   0.00000

 Dipole moment (field-independent basis, Debye):
    X=     2.0116    Y=     0.0000    Z=     0.0000  Tot=     2.0116
 Quadrupole moment (field-independent basis, Debye-Ang):
   XX=   -47.4376   YY=   -42.3481   ZZ=   -53.1015
   XY=     2.3954   XZ=     0.0000   YZ=     0.0000

  Exact polarizability: 111.826   0.000  89.090   0.000   0.000  52.869
 Approx polarizability:  97.536   0.000  88.547   0.000   0.000  58.104

                     1                      2                      3
                    A"                     A'                     A"
 Frequencies --   185.6725               293.1242               401.4209
 Red. masses --     5.0925                 5.7739                 3.0443
 Frc consts  --     0.1034                 0.2923                 0.2890
 IR Inten    --     0.1921                 0.0819                 0.0000

                     4                      5                      6
                    A'                     A"                     A"
 Frequencies --   414.3817               460.4164               591.7575
 Red. masses --    11.1476                 3.4675                 7.7855
 Frc consts  --     1.1278                 0.4331                 1.6063
 IR Inten    --     2.4544                 9.0355                 0.4716

                     7                      8                      9
                    A'                     A'                     A"
 Frequencies --   606.2623               702.0506               730.9502
 Red. masses --     6.4048                 6.7191                 1.1926
 Frc consts  --     1.3870                 1.9512                 0.3754
 IR Inten    --     0.1967                18.7075                82.2506

                    10                     11                     12
                    A"                     A"                     A"
 Frequencies --   824.6932               873.8759               926.9462
 Red. masses --     1.2469                 1.2248                 1.1810
 Frc consts  --     0.4996                 0.5511                 0.5979
 IR Inten    --     0.0000                 0.7537                 0.1205

                    13                     14                     15
                    A"                     A'                     A'
 Frequencies --   935.0659               994.2195              1033.6989
 Red. masses --     1.3378                 6.4814                 2.6370
 Frc consts  --     0.6891                 3.7747                 1.6602
 IR Inten    --     0.0000                 7.7981                12.0828

                    16                     17                     18
                    A'                     A'                     A'
 Frequencies --  1084.1693              1110.2279              1165.2891
 Red. masses --     1.5121                 2.7912                 1.0590
 Frc consts  --     1.0472                 2.0270                 0.8473
 IR Inten    --     5.1686                37.4094                 0.0741

                    19                     20                     21
                    A'                     A'                     A'
 Frequencies --  1182.2184              1298.3708              1437.8226
 Red. masses --     1.1207                 1.2881                 2.3238
 Frc consts  --     0.9228                 1.2794                 2.8305
 IR Inten    --     0.1028                 0.2190                 4.5645

                    22                     23                     24
                    A'                     A'                     A'
 Frequencies --  1472.2070              1473.9044              1611.9394
 Red. masses --     2.2114                 9.1177                 6.1263
 Frc consts  --     2.8240                11.6701                 9.3788
 IR Inten    --    37.8946                 0.2871                24.4869

                    25                     26                     27
                    A'                     A'                     A'
 Frequencies --  1614.9277              3207.7313              3216.2605
 Red. masses --     6.6395                 1.0854                 1.0895
 Frc consts  --    10.2022                 6.5801                 6.6404
 IR Inten    --     1.6711                 0.1339                 5.8559

                    28                     29                     30
                    A'                     A'                     A'
 Frequencies --  3228.9719              3235.4181              3238.9522
 Red. masses --     1.0937                 1.0962                 1.1002
 Frc consts  --     6.7185                 6.7605                 6.8004
 IR Inten    --     7.1957                 4.5938                 3.7868

 - Thermochemistry -
 -------------------
 Temperature   298.150 Kelvin.  Pressure   1.00000 Atm.
 Atom  1 has atomic number  6 and mass  12.00000

 Molecular mass:   112.00798 amu.
 Principal axes and moments of inertia in atomic units:
                           1         2         3
     EIGENVALUES --   323.459231165.489171488.94840
           X            1.00000   0.00000   0.00000
           Y            0.00000   1.00000   0.00000
           Z            0.00000   0.00000   1.00000
 This molecule is an asymmetric top.
 Rotational symmetry number  1.
 Rotational temperatures (Kelvin)      0.26777     0.07432     0.05817
 Rotational constants (GHZ):           5.57950     1.54848     1.21209
 Zero-point vibrational energy     236579.2 (Joules/Mol)
                                   56.54378 (Kcal/Mol)
 Warning -- explicit consideration of   7 degrees of freedom as
           vibrations may cause significant error
 Vibrational temperatures:    267.14   421.74   577.55   596.20   662.44
          (Kelvin)            851.41   872.28  1010.09  1051.67  1186.55
                             1257.31  1333.67  1345.35  1430.46  1487.26
                             1559.88  1597.37  1676.59  1700.95  1868.06
                             2068.70  2118.17  2120.62  2319.22  2323.52
                             4615.20  4627.48  4645.76  4655.04  4660.12

 Zero-point correction=                           0.090108 (Hartree/Particle)
 Thermal correction to Energy=                    0.095765
 Thermal correction to Enthalpy=                  0.096709
 Thermal correction to Gibbs Free Energy=         0.060227
 Sum of electronic and zero-point Energies=           -690.517516
 Sum of electronic and thermal Energies=              -690.511859
 Sum of electronic and thermal Enthalpies=            -690.510915
 Sum of electronic and thermal Free Energies=         -690.547397

                     E (Thermal)             CV                S
                      KCal/Mol        Cal/Mol-Kelvin    Cal/Mol-Kelvin
 Total                   60.094             21.725             76.784
 Electronic               0.000              0.000              0.000
 Translational            0.889              2.981             40.056
 Rotational               0.889              2.981             27.820
 Vibrational             58.316             15.763              8.908
 Vibration  1             0.632              1.859              2.271
 Vibration  2             0.688              1.687              1.456
 Vibration  3             0.767              1.467              0.957
 Vibration  4             0.778              1.439              0.911
 Vibration  5             0.818              1.338              0.765
 Vibration  6             0.949              1.049              0.464
 Vibration  7             0.965              1.019              0.439

 Optimization completed.
    -- Stationary point found.
 Normal termination of Gaussian 03 at Tue Mar 22 12:15:04 2016.
